% Model:              body-cover_v4.mph
% Version:            COMSOL 6.3.0.335
% Date:               Oct 28 2025, 00:11
% Table:              Eigenfrequencies (Study 1) - 
% Eigenfrequency (Hz)    Angular frequency (rad/s) Damping ratio (1)        Quality factor (1)
39.75903645952602        249.81339371011137        0                        Inf
62.01438894499139        389.64789745289005        0                        Inf
70.189316622192          441.01248292153264        0                        Inf
74.01959185958978        465.0788120156042         0                        Inf
74.3731000571943         467.2999695287605         0                        Inf
82.9382091600341         521.1161371981136         0                        Inf
88.482129622587          555.9496167925982         0                        Inf
100.08217295001269       628.834838590126          0                        Inf
102.28879737906749       642.6994687812266         0                        Inf
104.46052829076308       656.34485653674           0                        Inf
109.0031205804012        684.8868056675016         0                        Inf
110.0668524704772        691.5704302500055         0                        Inf
112.96595454604658       709.7860258152368         0                        Inf
114.10577380068835       716.9477214088424         0                        Inf
115.33930249984908       724.6982108073935         0                        Inf
117.66686502388274       739.3227174599435         0                        Inf
119.52862092417595       751.0204747782208         0                        Inf
122.40377617146926       769.0856079838744         0                        Inf
127.55448971099828       801.4484956169341         0                        Inf
129.72095130430338       815.0607752685576         0                        Inf
134.251760459292         843.5286887808169         0                        Inf
136.19788899444762       855.7565749987896         0                        Inf
136.30215130397312       856.4116744100928         0                        Inf
137.19337174641822       862.0113775995219         0                        Inf
138.23445772192272       868.5527137043225         0                        Inf
140.20946989549662       880.9620811748229         0                        Inf
142.79096535097364       897.182095491227          0                        Inf
144.7382542133589        909.4172722602005         0                        Inf
145.96673816250242       917.136064559565          0                        Inf
146.99920781770703       923.6232627272553         0                        Inf
148.59586568259647       933.6553599645214         0                        Inf
151.71265510458886       953.2387254663568         0                        Inf
152.23129510837322       956.4974367178502         0                        Inf
153.52537694131414       964.6283926768726         0                        Inf
154.85596005516138       972.9886929477789         0                        Inf
156.34021417750233       982.3145366413924         0                        Inf
156.85726521795402       985.5632641418202         0                        Inf
158.83379673568504       997.9821779332052         0                        Inf
159.5603669351687        1002.5473531352354        0                        Inf
161.94242024870385       1017.514235515758         0                        Inf
164.4398527912137        1033.2060669725279        0                        Inf
164.6208981575821        1034.343608558427         0                        Inf
166.23804282755387       1044.5044281883772        0                        Inf
167.47576361916805       1052.281257280638         0                        Inf
167.79048148541546       1054.2586879537507        0                        Inf
170.63727626954054       1072.145627113921         0                        Inf
170.82182349288445       1073.3051715161162        0                        Inf
171.53457921834902       1077.7835478179634        0                        Inf
172.6703609596166        1084.9198749668587        0                        Inf
173.41729120619814       1089.6129761176678        0                        Inf
175.36337309606802       1101.8405692546664        0                        Inf
176.57426968190236       1109.4488568912948        0                        Inf
177.734159255085         1116.7366580154667        0                        Inf
178.9767721919765        1124.5442253630547        0                        Inf
180.11023501967128       1131.6659823482607        0                        Inf
181.4921973044493        1140.3491074710544        0                        Inf
182.0045008343665        1143.5680054830464        0                        Inf
183.44169558961966       1152.5981664528085        0                        Inf
184.3623757814663        1158.3829707068307        0                        Inf
186.38080758500803       1171.065151758388         0                        Inf
188.0150061510652        1181.3331241776523        0                        Inf
188.37858111402417       1183.6175330429746        0                        Inf
189.10808259133756       1188.201126006796         0                        Inf
190.79673665060471       1198.8112523808925        0                        Inf
191.04856620574077       1200.3935441416368        0                        Inf
192.05529982004984       1206.7190379953074        0                        Inf
193.01930624619723       1212.7760690081034        0                        Inf
193.87180969109104       1218.13250612738          0                        Inf
195.47349649394354       1228.1962011137664        0                        Inf
195.87222570137385       1230.701490611436         0                        Inf
196.79238950428453       1236.4830502980828        0                        Inf
197.5820035997144        1241.4443419808297        0                        Inf
197.67383967320623       1242.0213650484625        0                        Inf
197.79186817940305       1242.7629600244268        0                        Inf
198.787092846442         1249.0161410297085        0                        Inf
201.1346965108436        1263.7665698809578        0                        Inf
202.53132408910486       1272.5418397602907        0                        Inf
203.63069941455814       1279.4494186522545        0                        Inf
204.21122121014403       1283.0969446687773        0                        Inf
204.54156637133696       1285.1725645318825        0                        Inf
205.40221104744458       1290.5801545155043        0                        Inf
205.58412727845752       1291.7231679053423        0                        Inf
206.8692292526192        1299.7977017476223        0                        Inf
207.2281802823763        1302.053057583789         0                        Inf
208.7656094948759        1311.7130102225954        0                        Inf
210.08096709691372       1319.9776457814064        0                        Inf
210.80676261597824       1324.5379535228094        0                        Inf
211.40179213012559       1328.2766342234381        0                        Inf
212.27876555916782       1333.7868207875833        0                        Inf
213.70815313162757       1342.7679277811274        0                        Inf
214.25514335086433       1346.2047686898068        0                        Inf
215.42240344990702       1353.5388801937688        0                        Inf
216.86774217280288       1362.6202112213657        0                        Inf
216.97655017694507       1363.3038720742954        0                        Inf
218.03475036245834       1369.9527399319672        0                        Inf
218.44291194091457       1372.5172947646786        0                        Inf
219.37531310609663       1378.3757440661477        0                        Inf
220.5055776621753        1385.477405718127         0                        Inf
220.97949515994947       1388.455117176957         0                        Inf
221.14234811277447       1389.478352457378         0                        Inf
