% Model:              body-cover_v2.mph
% Version:            COMSOL 6.3.0.335
% Date:               Oct 24 2025, 20:38
% Table:              Eigenfrequencies (Study 1) - 
% Eigenfrequency (Hz)    Angular frequency (rad/s) Damping ratio (1)        Quality factor (1)
43.68739455002249        274.49599554565884        0                        Inf
69.3619425567115         435.81393834976416        0                        Inf
74.36465620032044        467.24691521131473        0                        Inf
78.70339856538759        494.5080374911422         0                        Inf
84.21948227644862        529.1666136176535         0                        Inf
89.00982047153832        559.2651961814623         0                        Inf
99.41377600621779        624.6351767335101         0                        Inf
105.96273773440716       665.783516841351          0                        Inf
113.73804211639134       714.637195093083          0                        Inf
114.61058648838889       720.1195530710803         0                        Inf
120.78408640114355       758.9087970167749         0                        Inf
122.35019459929475       768.748945036852          0                        Inf
125.30516252927606       787.3155561176974         0                        Inf
127.36636534591335       800.26647537031           0                        Inf
128.24380512078804       805.7795920717376         0                        Inf
131.80143831210873       828.1328606677781         0                        Inf
133.91999087603674       841.4441190099383         0                        Inf
134.56039199322802       845.467877900176          0                        Inf
138.35202537920384       869.2914130811507         0                        Inf
140.63667000610116       883.6462586329988         0                        Inf
143.32197901195224       900.5185527237993         0                        Inf
146.3947710489526        919.8254745026985         0                        Inf
148.46951541086386       932.861477793613          0                        Inf
151.84333914562268       954.0598375128633         0                        Inf
152.78397992164804       959.9700578161198         0                        Inf
155.26627390274808       975.5667708862679         0                        Inf
156.6940709616078        984.5378843881296         0                        Inf
158.1297074807859        993.5582546718798         0                        Inf
160.81799682630094       1010.4492747890674        0                        Inf
162.95702399861864       1023.8891788898319        0                        Inf
164.22463488967844       1031.8538130157597        0                        Inf
165.83179883999276       1041.9519219346032        0                        Inf
167.53972015493667       1052.6831080464776        0                        Inf
168.49502384106168       1058.6854581310329        0                        Inf
169.55968003894034       1065.3748903107416        0                        Inf
170.47815063186667       1071.1458112452929        0                        Inf
172.75305990269504       1085.4394877509285        0                        Inf
175.49880085660828       1102.6914869698774        0                        Inf
175.84955328182517       1104.8953294544576        0                        Inf
177.02853817055285       1112.3031099846983        0                        Inf
178.23153592298317       1119.8617677873385        0                        Inf
180.84678487044692       1136.2938615486596        0                        Inf
181.3104265469598        1139.2070081183215        0                        Inf
182.96316446281384       1149.5914667078341        0                        Inf
183.7023705782903        1154.236035711573         0                        Inf
184.57072510352833       1159.6920681059717        0                        Inf
186.21381532675474       1170.0159084549182        0                        Inf
188.89907848511774       1186.8879144774553        0                        Inf
190.50142217762127       1196.9557368232454        0                        Inf
190.90175504014115       1199.4711023830114        0                        Inf
191.63303588173596       1204.0658754223418        0                        Inf
192.28577187043408       1208.1671365959971        0                        Inf
193.0209812838068        1212.7865935798009        0                        Inf
194.44139166372278       1221.7112952090542        0                        Inf
195.51271025058432       1228.4425884133311        0                        Inf
196.76214814468653       1236.2930382317875        0                        Inf
198.45386405709462       1246.922402796552         0                        Inf
200.3836092191557        1259.0473492454148        0                        Inf
201.28144552192774       1264.6886211112446        0                        Inf
203.1505432400193        1276.4325084312404        0                        Inf
203.3972516090132        1277.9826228304612        0                        Inf
204.3248883970075        1283.8111366671862        0                        Inf
205.29841232136647       1289.9279678849064        0                        Inf
207.12824260180608       1301.4251306175968        0                        Inf
208.1265792494439        1307.6978647736537        0                        Inf
208.80593564695326       1311.9663869088229        0                        Inf
209.19508613510877       1314.4114915382834        0                        Inf
209.87636617817807       1318.6921002949712        0                        Inf
210.6888368122373        1323.7970038454068        0                        Inf
212.55326016649494       1335.511521271241         0                        Inf
213.54646031260094       1341.7519818363428        0                        Inf
214.14279907143296       1345.4988887639379        0                        Inf
215.10743621754682       1351.55988270716          0                        Inf
216.0366933833652        1357.3985776780214        0                        Inf
216.86753487214997       1362.6189087129492        0                        Inf
217.95918680446897       1369.4779600946501        0                        Inf
218.60811121997364       1373.5552724476192        0                        Inf
221.18304669262872       1389.734069176341         0                        Inf
222.11077048686224       1395.56312968939          0                        Inf
223.01514425522515       1401.2454776629666        0                        Inf
223.5149986989545        1404.3861557595353        0                        Inf
224.2203569328893        1408.8180522512926        0                        Inf
226.08068215733138       1420.5068203680826        0                        Inf
226.3323849848262        1422.0883158755737        0                        Inf
227.5254052671488        1429.5842833846302        0                        Inf
228.391068738648         1435.0234073897159        0                        Inf
228.8220893669084        1437.731589868293         0                        Inf
229.85717569640337       1444.2352290854383        0                        Inf
230.09119415798273       1445.7056104448425        0                        Inf
231.07380814281734       1451.8795561969846        0                        Inf
232.02222198514184       1457.8386161162036        0                        Inf
232.31493596251747       1459.6777922780561        0                        Inf
234.068551150763         1470.6960814632876        0                        Inf
234.20414028597298       1471.5480131254521        0                        Inf
235.0913404331607        1477.1224560547894        0                        Inf
235.37249746259042       1478.8890177711125        0                        Inf
235.9083551921252        1482.2559111840642        0                        Inf
237.17821230311412       1490.2346587260472        0                        Inf
237.79049800505496       1494.081763252278         0                        Inf
237.89793246848015       1494.756793894356         0                        Inf
