% Model:              body-cover_v4.mph
% Version:            COMSOL 6.3.0.335
% Date:               Oct 27 2025, 20:17
% Table:              Eigenfrequencies (Study 1) - 
% Eigenfrequency (Hz)    Angular frequency (rad/s) Damping ratio (1)        Quality factor (1)
48.942456433925635       307.5145231629186         0                        Inf
79.53540686344935        499.7356998049754         0                        Inf
82.50746691684692        518.4097038645384         0                        Inf
87.38646668835744        549.0653635426258         0                        Inf
95.0516079540112         597.2268665204375         0                        Inf
99.97319935556213        628.1501373026036         0                        Inf
116.9193479949216        734.6259294467084         0                        Inf
119.18792131354247       748.8797959905268         0                        Inf
130.8753284422633        822.3139407407315         0                        Inf
133.03456778956925       835.8808416824081         0                        Inf
136.7154620763604        859.0085825824557         0                        Inf
137.2210329469915        862.1851780485429         0                        Inf
141.3831359679879        888.3364425970352         0                        Inf
145.66345913769604       915.2305062469258         0                        Inf
149.0654715800985        936.605980839871          0                        Inf
150.89256876171453       948.0859710061901         0                        Inf
152.36473448676668       957.3358610595712         0                        Inf
154.6466375873119        971.6734810933244         0                        Inf
157.70837114482887       990.9109203964138         0                        Inf
163.96931987998462       1030.249621498149         0                        Inf
166.00762909221876       1043.0566959919474        0                        Inf
169.47197277072115       1064.823809291734         0                        Inf
170.91410060001115       1073.8849656798038        0                        Inf
173.31117562401002       1088.9462322508007        0                        Inf
176.2697248237503        1107.5353451131766        0                        Inf
179.02735135770587       1124.8620236340148        0                        Inf
180.26921658680683       1132.6648929949993        0                        Inf
183.55820598385688       1153.3302228500136        0                        Inf
187.49470815181226       1178.0639954333915        0                        Inf
188.07086509785776       1181.6840962914139        0                        Inf
189.90992352445113       1193.2392411764301        0                        Inf
191.62765617197996       1204.032073709046         0                        Inf
194.18426785013617       1220.0957386414009        0                        Inf
195.76354178188794       1230.0186094053954        0                        Inf
196.1917933905288        1232.7093936205836        0                        Inf
197.3970057822787        1240.2819664124575        0                        Inf
198.75888157562255       1248.838884387399         0                        Inf
200.49248923883164       1259.7314625852882        0                        Inf
201.12075657735016       1263.6789826956488        0                        Inf
202.24602457472753       1270.7492500434096        0                        Inf
205.628617940999         1292.0027109825296        0                        Inf
207.99365922027783       1306.8627035993675        0                        Inf
208.7978032233279        1311.9152893841883        0                        Inf
210.2300254720302        1320.9142071738504        0                        Inf
213.527469622            1341.632659808186         0                        Inf
215.72231769435842       1355.4232969679197        0                        Inf
217.2316327222305        1364.9066029749508        0                        Inf
218.7039148893647        1374.157224655511         0                        Inf
220.64657090501382       1386.3632923899415        0                        Inf
221.88760479387687       1394.160938286158         0                        Inf
222.23851870542995       1396.3657954193131        0                        Inf
222.45847671662898       1397.7478323634753        0                        Inf
223.61550898416428       1405.0176805067858        0                        Inf
226.19883015769406       1421.249166148034         0                        Inf
227.06892534869786       1426.7161354679968        0                        Inf
229.49135363425438       1441.9367012795017        0                        Inf
230.3171399888968        1447.1252699698603        0                        Inf
231.9761209227525        1457.5489545983535        0                        Inf
233.29939654442276       1465.863340541781         0                        Inf
235.06465448005753       1476.9547832663436        0                        Inf
236.96884895257188       1488.9191899980583        0                        Inf
237.53374424890777       1492.4685318240909        0                        Inf
238.15274166273784       1496.35780727985          0                        Inf
239.06713434417384       1502.1031059408413        0                        Inf
241.86916259016525       1519.7087686463567        0                        Inf
242.3123817899563        1522.4935970103438        0                        Inf
243.38734414640987       1529.247784694184         0                        Inf
244.83345799181626       1538.3339859601504        0                        Inf
245.59703836070653       1543.1317029148124        0                        Inf
246.33826965839805       1547.7889965136894        0                        Inf
248.35079997889537       1560.4340974536917        0                        Inf
250.39844133551202       1573.2998075399587        0                        Inf
250.91884555018996       1576.5696036554175        0                        Inf
252.6343489732747        1587.3484295577598        0                        Inf
254.0494386625975        1596.2397003020542        0                        Inf
255.36687592870354       1604.5174027755825        0                        Inf
255.70112375723463       1606.6175438207656        0                        Inf
257.1299661505852        1615.595225352941         0                        Inf
258.0388491670646        1621.3059057680298        0                        Inf
259.672887730997         1631.5728728642946        0                        Inf
260.29685490057295       1635.4933742163366        0                        Inf
261.2630822491601        1641.5643596963746        0                        Inf
263.1723142417028        1653.560418099916         0                        Inf
264.7118984085016        1663.2339107159125        0                        Inf
264.7696900012809        1663.5970260025417        0                        Inf
266.0022915996221        1671.3416902548454        0                        Inf
267.42666924591964       1680.2913189539372        0                        Inf
268.09982343926464       1684.5208714910289        0                        Inf
269.19283390645916       1691.388458799099         0                        Inf
269.5034769131723        1693.340286374657         0                        Inf
269.94865095557844       1696.137397377041         0                        Inf
271.24496091546007       1704.2823530705198        0                        Inf
271.87849831007196       1708.2629859198942        0                        Inf
272.94358721707397       1714.9551368912091        0                        Inf
273.4938629770393        1718.4126214611206        0                        Inf
274.1603485123153        1722.6002735838142        0                        Inf
275.24302265081644       1729.402915823308         0                        Inf
276.04239446560706       1734.4255170649737        0                        Inf
277.2773713727079        1742.1851058223758        0                        Inf
279.1403801656496        1753.8907352973338        0                        Inf
