% Model:              body-cover_v4.mph
% Version:            COMSOL 6.3.0.335
% Date:               Oct 28 2025, 00:08
% Table:              Eigenfrequencies (Study 1) - 
% Eigenfrequency (Hz)    Angular frequency (rad/s) Damping ratio (1)        Quality factor (1)
46.73506817512545        293.6450936879845         0                        Inf
75.22202393222194        472.63391554724814        0                        Inf
80.32787871960849        504.7149473279478         0                        Inf
85.18279923072471        535.2193125509181         0                        Inf
89.44415222898029        561.9941830982632         0                        Inf
96.3103639758439         605.1358638621405         0                        Inf
110.26362781526961       692.8068062052204         0                        Inf
116.31454371555485       730.8258320848719         0                        Inf
123.35835142376224       775.083381183679          0                        Inf
126.46033674113754       794.5737297528982         0                        Inf
129.95976389460373       816.5612790271022         0                        Inf
130.51836249146064       820.0710575234847         0                        Inf
135.4217490910731        850.8799441615911         0                        Inf
137.08755302361          861.346498955149          0                        Inf
139.19068168795394       874.5608460780629         0                        Inf
141.93535113069487       891.8061127937575         0                        Inf
144.37519417216075       907.1360987437203         0                        Inf
146.50991210318975       920.5489270829345         0                        Inf
153.72057771805203       965.8548753292222         0                        Inf
157.43235037837766       989.176630772171          0                        Inf
158.12943792516086       993.5565610039372         0                        Inf
161.92367920884          1017.3964820894442        0                        Inf
162.06580443190322       1018.2894812027746        0                        Inf
164.55914651428913       1033.9556115405942        0                        Inf
168.79490898449242       1060.5696920580783        0                        Inf
169.35017775886058       1064.058548662724         0                        Inf
172.99015634171192       1086.929208612944         0                        Inf
173.3138790751519        1088.963218535294         0                        Inf
174.85529175355808       1098.648200028556         0                        Inf
179.2942307105331        1126.5388760624885        0                        Inf
180.11718913380435       1131.7096763360062        0                        Inf
181.88952989970875       1142.845621795652         0                        Inf
183.77574148998838       1154.697038745929         0                        Inf
185.34055439701507       1164.529048211844         0                        Inf
186.56803268045326       1172.2415217272248        0                        Inf
187.7950693254672        1179.9512203465474        0                        Inf
190.6312865510288        1197.7716987461656        0                        Inf
191.3474055455225        1202.2712070905607        0                        Inf
193.28433039034067       1214.4412648166333        0                        Inf
194.3963102629478        1221.4280404140777        0                        Inf
195.38853825900674       1227.6623927802875        0                        Inf
197.84548574903303       1243.0998491501325        0                        Inf
199.16095744958145       1251.3652016110289        0                        Inf
199.8438723515878        1255.6560824893693        0                        Inf
201.51112303604845       1266.1317274933574        0                        Inf
204.1321892187258        1282.6003720215012        0                        Inf
206.78227032752957       1299.251322707171         0                        Inf
208.206905125324         1308.2025671367699        0                        Inf
208.3851592007567        1309.3225705244736        0                        Inf
210.65942372223805       1323.6121959504849        0                        Inf
211.4643509153944        1328.6697026638742        0                        Inf
213.9868798328958        1344.5192192952545        0                        Inf
214.402958176902         1347.13351663295          0                        Inf
214.5780997011594        1348.2339632848411        0                        Inf
217.37804678854215       1365.8265496851648        0                        Inf
218.79870253954024       1374.7527930263961        0                        Inf
220.3738119569137        1384.6494973748372        0                        Inf
222.47931269073896       1397.8787486498638        0                        Inf
224.38649670807496       1409.8619392456771        0                        Inf
225.4097372993145        1416.2911494942632        0                        Inf
226.64245075497672       1424.0365165668427        0                        Inf
226.74755483709265       1424.696904991318         0                        Inf
227.17804347441643       1427.4017448722586        0                        Inf
227.50505453294593       1429.4564159504964        0                        Inf
229.79663763540924       1443.854857230075         0                        Inf
230.90237912139796       1450.802435888378         0                        Inf
231.75838615220223       1456.18088668717          0                        Inf
232.65929566671952       1461.8414681118832        0                        Inf
233.31842119454535       1465.9828759439056        0                        Inf
233.8705108190488        1469.4517573608318        0                        Inf
236.36325648657441       1485.1141403135643        0                        Inf
238.5843340255309        1499.0695820724422        0                        Inf
239.9307956260739        1507.5296498176556        0                        Inf
241.53283461929576       1517.595557681396         0                        Inf
242.28781119457585       1522.3392154064607        0                        Inf
243.64632073631932       1530.8749825988066        0                        Inf
244.67490129923735       1537.3377448789836        0                        Inf
244.9331181374829        1538.9601691231144        0                        Inf
245.55223261914057       1542.8501801377279        0                        Inf
248.05188318319924       1558.5559478349046        0                        Inf
249.152031853137         1565.4683857935706        0                        Inf
250.51269411451503       1574.0176789222949        0                        Inf
250.98625519448277       1576.9931509420003        0                        Inf
252.0926115463464        1583.9445929165347        0                        Inf
253.6422034161382        1593.6809657849353        0                        Inf
255.7337300522343        1606.8224152144292        0                        Inf
256.7525690167786        1613.2239692268358        0                        Inf
257.156839357069         1615.764074689077         0                        Inf
257.70845428015264       1619.2299734690173        0                        Inf
258.4015377668728        1623.5847454494262        0                        Inf
259.26974191378247       1629.0398329889213        0                        Inf
260.3950865548032        1636.110581902896         0                        Inf
261.02591269279617       1640.0741794245184        0                        Inf
261.24885899920554       1641.4749923812396        0                        Inf
262.0042689764392        1646.221373251091         0                        Inf
262.3118181787197        1648.1537618800946        0                        Inf
263.21437010316276       1653.824662870722         0                        Inf
263.6867069624836        1656.792442885246         0                        Inf
263.9271567593406        1658.3032335159724        0                        Inf
265.5057745072223        1668.2219813551158        0                        Inf
