% Model:              body-cover_v2.mph
% Version:            COMSOL 6.3.0.335
% Date:               Oct 17 2025, 18:50
% Table:              Eigenfrequencies (Study 1) - 
% Eigenfrequency (Hz)    Angular frequency (rad/s) Damping ratio (1)        Quality factor (1)
87.73943161284915        551.2831075701419         0                        Inf
126.94344949288201       797.6092166963701         0                        Inf
137.2119792976811        862.1282922922194         0                        Inf
152.94246903572116       960.965874289012          0                        Inf
157.27542606592885       988.1906462378535         0                        Inf
175.0046561737227        1099.5866843587498        0                        Inf
190.9877891218476        1200.0116704611062        0                        Inf
202.41645789840197       1271.8201141985746        0                        Inf
212.20324721012636       1333.3123250064634        0                        Inf
213.6265340936166        1342.2551002407108        0                        Inf
226.57812102170746       1423.6323209319505        0                        Inf
229.35364005482748       1441.0714213406475        0                        Inf
233.5194419615124        1467.2459266733508        0                        Inf
234.7740501208745        1475.1288622265224        0                        Inf
245.06679188163181       1539.8000660283064        0                        Inf
247.15222948588686       1552.9032569424016        0                        Inf
261.66255804393785       1644.074340140696         0                        Inf
266.10775144237203       1672.0043139893094        0                        Inf
268.3573841260874        1686.1391730141809        0                        Inf
271.8511624367437        1708.0912295622393        0                        Inf
277.0159045635792        1740.5422614089434        0                        Inf
289.1745752564335        1816.9374424611206        0                        Inf
291.15229709349484       1829.3638352494324        0                        Inf
291.6838360776652        1832.703593184965         0                        Inf
295.5763190573725        1857.1607850515084        0                        Inf
299.7266182296976        1883.237883831461         0                        Inf
300.52425628008933       1888.2495915101297        0                        Inf
303.67637270846706       1908.054923139432         0                        Inf
307.1824487688463        1930.0842487278612        0                        Inf
307.55803569049897       1932.444130955558         0                        Inf
311.6010814980851        1957.847336970037         0                        Inf
319.16024617262724       2005.3429693876712        0                        Inf
324.3406911971873        2037.8926654506388        0                        Inf
326.7811102341587        2053.2262704870986        0                        Inf
327.4834395178519        2057.6391355232017        0                        Inf
329.93356545080553       2073.033730785876         0                        Inf
333.6671895503491        2096.4927828706595        0                        Inf
337.4173851698456        2120.055956886129         0                        Inf
338.4051553751847        2126.2623001271854        0                        Inf
347.4548812438918        2183.123404739449         0                        Inf
348.1391809449639        2187.4229865669327        0                        Inf
352.4006661884446        2214.198688035533         0                        Inf
353.47960867196866       2220.9778835953034        0                        Inf
358.82712492641286       2254.577319155131         0                        Inf
359.1016150785699        2256.30199164613          0                        Inf
360.76274909158184       2266.7392044699427        0                        Inf
363.6527149104065        2284.897395241033         0                        Inf
368.1210411376717        2312.9727169398707        0                        Inf
370.03951437959125       2325.026839825717         0                        Inf
375.286588652936         2357.995179805677         0                        Inf
376.25626509056997       2364.0878365513367        0                        Inf
376.5270442973681        2365.7891924849805        0                        Inf
377.05386648600125       2369.0993139200964        0                        Inf
380.2681817123017        2389.295452122631         0                        Inf
384.3653517016809        2415.0387304009155        0                        Inf
386.0301822500098        2425.4991692411195        0                        Inf
389.29938193890575       2446.0401566926266        0                        Inf
391.82317995502086       2461.89764730577          0                        Inf
392.6431782079167        2467.049848280278         0                        Inf
395.8535630301676        2487.221291025837         0                        Inf
396.3925750979717        2490.6080037306565        0                        Inf
402.1565432629424        2526.8240838158513        0                        Inf
405.1041883694932        2545.3446842401113        0                        Inf
406.9895304553481        2557.1906379329616        0                        Inf
409.4124847504107        2572.414508759667         0                        Inf
412.3713264164367        2591.0054592419124        0                        Inf
414.2450879549862        2602.778650210085         0                        Inf
414.6979830960426        2605.6242743060634        0                        Inf
417.0071117924487        2620.132957803709         0                        Inf
418.1091451685851        2627.0572377206704        0                        Inf
418.7223613342656        2630.9101885229993        0                        Inf
422.10897503247315       2652.18890995267          0                        Inf
423.22824605616023       2659.2214972034526        0                        Inf
425.1012015311022        2670.9896235246097        0                        Inf
426.9258546847603        2682.454257410373         0                        Inf
428.7081772229393        2693.6529201949143        0                        Inf
429.9690155447172        2701.575001013038         0                        Inf
433.4837913596623        2723.6589887715313        0                        Inf
436.5197336154888        2742.7343765467863        0                        Inf
436.99705140458144       2745.7334526660684        0                        Inf
438.807230439331         2757.1071429805716        0                        Inf
441.7344845558685        2775.4996230359807        0                        Inf
442.7460804770234        2781.855667664584         0                        Inf
444.72875955921046       2794.313207742634         0                        Inf
445.5566704135294        2799.5151250581453        0                        Inf
449.12711560959684       2821.9488938541663        0                        Inf
449.5296455495134        2824.47806405835          0                        Inf
450.932117854638         2833.2900574396353        0                        Inf
453.3630064486765        2848.5637809370883        0                        Inf
453.8154271896575        2851.4064242894833        0                        Inf
456.61898050359054       2869.021669279482         0                        Inf
457.9233239994723        2877.2171011683217        0                        Inf
459.20048793203085       2885.2417588242333        0                        Inf
463.1331211207932        2909.9512218943914        0                        Inf
464.07785470137816       2915.8871580471223        0                        Inf
464.83710508781655       2920.6576689196622        0                        Inf
466.7229664640476        2932.5068854101746        0                        Inf
467.5915183323813        2937.9641577478124        0                        Inf
470.0054880093643        2953.131576554209         0                        Inf
471.23750140653874       2960.8725450295838        0                        Inf
